begin
comment | tag=A11-1 | frame=1/1 | file=A11-1/y_stretch/y_dir/0.99600000
lattice        2.848261200        0.000000000        0.000000000
lattice       -1.424130600        2.466666556        0.000000000
lattice        0.000000000        0.000000000        4.822648418
atom     0.000000     0.000000     0.000000    Au   0.0   0.0     0.000000     0.000000     0.000000
atom     0.000000     1.644440     2.411320    Au   0.0   0.0    -0.000000    -0.000000     0.000000
energy       -7.835068180
charge        0.0
end
begin
comment | tag=A11-1 | frame=1/1 | file=A11-1/y_stretch/y_dir/0.99650000
lattice        2.849691050        0.000000000        0.000000000
lattice       -1.424845525        2.467904842        0.000000000
lattice        0.000000000        0.000000000        4.820006194
atom     0.000000    -0.000000     0.000000    Au   0.0   0.0     0.000000    -0.000000     0.000000
atom     0.000000     1.645270     2.410000    Au   0.0   0.0    -0.000000     0.000000     0.000000
energy       -7.835276380
charge        0.0
end
begin
comment | tag=A11-1 | frame=1/1 | file=A11-1/y_stretch/y_dir/0.99700000
lattice        2.851120900        0.000000000        0.000000000
lattice       -1.425560450        2.469143129        0.000000000
lattice        0.000000000        0.000000000        4.817332170
atom     0.000000     0.000000     0.000000    Au   0.0   0.0    -0.000000     0.000000     0.000000
atom     0.000000     1.646100     2.408670    Au   0.0   0.0     0.000000    -0.000000     0.000000
energy       -7.835453490
charge        0.0
end
begin
comment | tag=A11-1 | frame=1/1 | file=A11-1/y_stretch/y_dir/0.99750000
lattice        2.852550750        0.000000000        0.000000000
lattice       -1.426275375        2.470381415        0.000000000
lattice        0.000000000        0.000000000        4.814677270
atom     0.000000    -0.000000     0.000000    Au   0.0   0.0     0.000000     0.000000     0.000000
atom     0.000000     1.646920     2.407340    Au   0.0   0.0    -0.000000     0.000000     0.000000
energy       -7.835600260
charge        0.0
end
begin
comment | tag=A11-1 | frame=1/1 | file=A11-1/y_stretch/y_dir/0.99800000
lattice        2.853980600        0.000000000        0.000000000
lattice       -1.426990300        2.471619702        0.000000000
lattice        0.000000000        0.000000000        4.812030255
atom     0.000000    -0.000000     0.000000    Au   0.0   0.0     0.000000     0.000000     0.000000
atom     0.000000     1.647750     2.406020    Au   0.0   0.0    -0.000000     0.000000     0.000000
energy       -7.835716370
charge        0.0
end
begin
comment | tag=A11-1 | frame=1/1 | file=A11-1/y_stretch/y_dir/0.99850000
lattice        2.855410450        0.000000000        0.000000000
lattice       -1.427705225        2.472857988        0.000000000
lattice        0.000000000        0.000000000        4.809341889
atom     0.000000     0.000000     0.000000    Au   0.0   0.0    -0.000000     0.000000     0.000000
atom     0.000000     1.648570     2.404670    Au   0.0   0.0     0.000000    -0.000000     0.000000
energy       -7.835803510
charge        0.0
end
begin
comment | tag=A11-1 | frame=1/1 | file=A11-1/y_stretch/y_dir/0.99900000
lattice        2.856840300        0.000000000        0.000000000
lattice       -1.428420150        2.474096274        0.000000000
lattice        0.000000000        0.000000000        4.806650716
atom     0.000000     0.000000     0.000000    Au   0.0   0.0    -0.000000    -0.000000     0.000000
atom     0.000000     1.649400     2.403330    Au   0.0   0.0     0.000000     0.000000     0.000000
energy       -7.835860320
charge        0.0
end
begin
comment | tag=A11-1 | frame=1/1 | file=A11-1/y_stretch/y_dir/0.99950000
lattice        2.858270150        0.000000000        0.000000000
lattice       -1.429135075        2.475334561        0.000000000
lattice        0.000000000        0.000000000        4.803945760
atom     0.000000     0.000000     0.000000    Au   0.0   0.0     0.000000     0.000000     0.000000
atom     0.000000     1.650220     2.401970    Au   0.0   0.0    -0.000000     0.000000     0.000000
energy       -7.835890630
charge        0.0
end
begin
comment | tag=A11-1 | frame=1/1 | file=A11-1/y_stretch/y_dir/1.00000000
lattice        2.859700000        0.000000000        0.000000000
lattice       -1.429850000        2.476572847        0.000000000
lattice        0.000000000        0.000000000        4.801189287
atom     0.000000    -0.000000     0.000000    Au   0.0   0.0    -0.000000     0.000000     0.000000
atom     0.000000     1.651050     2.400590    Au   0.0   0.0     0.000000     0.000000     0.000000
energy       -7.835891130
charge        0.0
end
begin
comment | tag=A11-1 | frame=1/1 | file=A11-1/y_stretch/y_dir/1.00050000
lattice        2.861129850        0.000000000        0.000000000
lattice       -1.430564925        2.477811134        0.000000000
lattice        0.000000000        0.000000000        4.798438053
atom    -0.000000    -0.000000     0.000000    Au   0.0   0.0    -0.000000    -0.000000     0.000000
atom     0.000000     1.651870     2.399220    Au   0.0   0.0     0.000000     0.000000     0.000000
energy       -7.835865530
charge        0.0
end
begin
comment | tag=A11-1 | frame=1/1 | file=A11-1/y_stretch/y_dir/1.00100000
lattice        2.862559700        0.000000000        0.000000000
lattice       -1.431279850        2.479049420        0.000000000
lattice        0.000000000        0.000000000        4.795787349
atom     0.000000    -0.000000     0.000000    Au   0.0   0.0    -0.000000     0.000000     0.000000
atom     0.000000     1.652700     2.397890    Au   0.0   0.0     0.000000     0.000000     0.000000
energy       -7.835812060
charge        0.0
end
begin
comment | tag=A11-1 | frame=1/1 | file=A11-1/y_stretch/y_dir/1.00150000
lattice        2.863989550        0.000000000        0.000000000
lattice       -1.431994775        2.480287706        0.000000000
lattice        0.000000000        0.000000000        4.793047269
atom     0.000000     0.000000     0.000000    Au   0.0   0.0    -0.000000     0.000000     0.000000
atom     0.000000     1.653530     2.396520    Au   0.0   0.0     0.000000     0.000000     0.000000
energy       -7.835732690
charge        0.0
end
begin
comment | tag=A11-1 | frame=1/1 | file=A11-1/y_stretch/y_dir/1.00200000
lattice        2.865419400        0.000000000        0.000000000
lattice       -1.432709700        2.481525993        0.000000000
lattice        0.000000000        0.000000000        4.790283306
atom     0.000000    -0.000000     0.000000    Au   0.0   0.0     0.000000     0.000000     0.000000
atom     0.000000     1.654350     2.395140    Au   0.0   0.0     0.000000     0.000000     0.000000
energy       -7.835627880
charge        0.0
end
begin
comment | tag=A11-1 | frame=1/1 | file=A11-1/y_stretch/y_dir/1.00250000
lattice        2.866849250        0.000000000        0.000000000
lattice       -1.433424625        2.482764279        0.000000000
lattice        0.000000000        0.000000000        4.787515988
atom    -0.000000     0.000000     0.000000    Au   0.0   0.0    -0.000000     0.000000     0.000000
atom     0.000000     1.655180     2.393760    Au   0.0   0.0     0.000000    -0.000000     0.000000
energy       -7.835498380
charge        0.0
end
begin
comment | tag=A11-1 | frame=1/1 | file=A11-1/y_stretch/y_dir/1.00300000
lattice        2.868279100        0.000000000        0.000000000
lattice       -1.434139550        2.484002566        0.000000000
lattice        0.000000000        0.000000000        4.784747514
atom     0.000000    -0.000000     0.000000    Au   0.0   0.0     0.000000    -0.000000     0.000000
atom     0.000000     1.656000     2.392370    Au   0.0   0.0    -0.000000     0.000000     0.000000
energy       -7.835343600
charge        0.0
end
begin
comment | tag=A11-1 | frame=1/1 | file=A11-1/y_stretch/y_dir/1.00350000
lattice        2.869708950        0.000000000        0.000000000
lattice       -1.434854475        2.485240852        0.000000000
lattice        0.000000000        0.000000000        4.781968076
atom     0.000000     0.000000     0.000000    Au   0.0   0.0     0.000000     0.000000     0.000000
atom     0.000000     1.656830     2.390980    Au   0.0   0.0    -0.000000     0.000000     0.000000
energy       -7.835163560
charge        0.0
end
begin
comment | tag=A11-1 | frame=1/1 | file=A11-1/y_stretch/y_dir/1.00400000
lattice        2.871138800        0.000000000        0.000000000
lattice       -1.435569400        2.486479139        0.000000000
lattice        0.000000000        0.000000000        4.779182981
atom    -0.000000     0.000000     0.000000    Au   0.0   0.0     0.000000     0.000000     0.000000
atom     0.000000     1.657650     2.389590    Au   0.0   0.0    -0.000000    -0.000000     0.000000
energy       -7.834962350
charge        0.0
end
begin
comment | tag=A12-1 | frame=1/1 | file=A12-1/y_stretch/y_dir/0.99600000
lattice        0.000000000        2.032587000        2.032587000
lattice        2.032587000        0.000000000        2.032587000
lattice        2.032587000        2.032587000        0.000000000
atom     0.000000     0.000000     0.000000    Au   0.0   0.0     0.000000     0.000000     0.000000
energy       -3.922024290
charge        0.0
end
begin
comment | tag=A12-1 | frame=1/1 | file=A12-1/y_stretch/y_dir/0.99650000
lattice        0.000000000        2.033607375        2.033607375
lattice        2.033607375        0.000000000        2.033607375
lattice        2.033607375        2.033607375        0.000000000
atom     0.000000     0.000000     0.000000    Au   0.0   0.0     0.000000     0.000000    -0.000000
energy       -3.922344810
charge        0.0
end
begin
comment | tag=A12-1 | frame=1/1 | file=A12-1/y_stretch/y_dir/0.99700000
lattice        0.000000000        2.034627750        2.034627750
lattice        2.034627750        0.000000000        2.034627750
lattice        2.034627750        2.034627750        0.000000000
atom     0.000000     0.000000     0.000000    Au   0.0   0.0    -0.000000    -0.000000     0.000000
energy       -3.922621860
charge        0.0
end
begin
comment | tag=A12-1 | frame=1/1 | file=A12-1/y_stretch/y_dir/0.99750000
lattice        0.000000000        2.035648125        2.035648125
lattice        2.035648125        0.000000000        2.035648125
lattice        2.035648125        2.035648125        0.000000000
atom     0.000000     0.000000     0.000000    Au   0.0   0.0    -0.000000    -0.000000    -0.000000
energy       -3.922852920
charge        0.0
end
begin
comment | tag=A12-1 | frame=1/1 | file=A12-1/y_stretch/y_dir/0.99800000
lattice        0.000000000        2.036668500        2.036668500
lattice        2.036668500        0.000000000        2.036668500
lattice        2.036668500        2.036668500        0.000000000
atom     0.000000     0.000000     0.000000    Au   0.0   0.0     0.000000     0.000000    -0.000000
energy       -3.923041420
charge        0.0
end
begin
comment | tag=A12-1 | frame=1/1 | file=A12-1/y_stretch/y_dir/0.99850000
lattice        0.000000000        2.037688875        2.037688875
lattice        2.037688875        0.000000000        2.037688875
lattice        2.037688875        2.037688875        0.000000000
atom     0.000000     0.000000     0.000000    Au   0.0   0.0     0.000000    -0.000000    -0.000000
energy       -3.923188680
charge        0.0
end
begin
comment | tag=A12-1 | frame=1/1 | file=A12-1/y_stretch/y_dir/0.99900000
lattice        0.000000000        2.038709250        2.038709250
lattice        2.038709250        0.000000000        2.038709250
lattice        2.038709250        2.038709250        0.000000000
atom     0.000000     0.000000     0.000000    Au   0.0   0.0     0.000000    -0.000000    -0.000000
energy       -3.923292520
charge        0.0
end
begin
comment | tag=A12-1 | frame=1/1 | file=A12-1/y_stretch/y_dir/0.99950000
lattice        0.000000000        2.039729625        2.039729625
lattice        2.039729625        0.000000000        2.039729625
lattice        2.039729625        2.039729625        0.000000000
atom     0.000000     0.000000     0.000000    Au   0.0   0.0     0.000000    -0.000000    -0.000000
energy       -3.923353660
charge        0.0
end
begin
comment | tag=A12-1 | frame=1/1 | file=A12-1/y_stretch/y_dir/1.00000000
lattice        0.000000000        2.040750000        2.040750000
lattice        2.040750000        0.000000000        2.040750000
lattice        2.040750000        2.040750000        0.000000000
atom     0.000000     0.000000     0.000000    Au   0.0   0.0    -0.000000     0.000000    -0.000000
energy       -3.923374920
charge        0.0
end
begin
comment | tag=A12-1 | frame=1/1 | file=A12-1/y_stretch/y_dir/1.00050000
lattice        0.000000000        2.041770375        2.041770375
lattice        2.041770375        0.000000000        2.041770375
lattice        2.041770375        2.041770375        0.000000000
atom     0.000000     0.000000     0.000000    Au   0.0   0.0     0.000000     0.000000     0.000000
energy       -3.923350870
charge        0.0
end
begin
comment | tag=A12-1 | frame=1/1 | file=A12-1/y_stretch/y_dir/1.00100000
lattice        0.000000000        2.042790750        2.042790750
lattice        2.042790750        0.000000000        2.042790750
lattice        2.042790750        2.042790750        0.000000000
atom     0.000000     0.000000     0.000000    Au   0.0   0.0    -0.000000    -0.000000    -0.000000
energy       -3.923288010
charge        0.0
end
begin
comment | tag=A12-1 | frame=1/1 | file=A12-1/y_stretch/y_dir/1.00150000
lattice        0.000000000        2.043811125        2.043811125
lattice        2.043811125        0.000000000        2.043811125
lattice        2.043811125        2.043811125        0.000000000
atom     0.000000     0.000000     0.000000    Au   0.0   0.0    -0.000000     0.000000     0.000000
energy       -3.923185050
charge        0.0
end
begin
comment | tag=A12-1 | frame=1/1 | file=A12-1/y_stretch/y_dir/1.00200000
lattice        0.000000000        2.044831500        2.044831500
lattice        2.044831500        0.000000000        2.044831500
lattice        2.044831500        2.044831500        0.000000000
atom     0.000000     0.000000     0.000000    Au   0.0   0.0     0.000000     0.000000     0.000000
energy       -3.923038340
charge        0.0
end
begin
comment | tag=A12-1 | frame=1/1 | file=A12-1/y_stretch/y_dir/1.00250000
lattice        0.000000000        2.045851875        2.045851875
lattice        2.045851875        0.000000000        2.045851875
lattice        2.045851875        2.045851875        0.000000000
atom     0.000000     0.000000     0.000000    Au   0.0   0.0     0.000000    -0.000000    -0.000000
energy       -3.922851980
charge        0.0
end
begin
comment | tag=A12-1 | frame=1/1 | file=A12-1/y_stretch/y_dir/1.00300000
lattice        0.000000000        2.046872250        2.046872250
lattice        2.046872250        0.000000000        2.046872250
lattice        2.046872250        2.046872250        0.000000000
atom     0.000000     0.000000     0.000000    Au   0.0   0.0    -0.000000     0.000000     0.000000
energy       -3.922627680
charge        0.0
end
begin
comment | tag=A12-1 | frame=1/1 | file=A12-1/y_stretch/y_dir/1.00350000
lattice        0.000000000        2.047892625        2.047892625
lattice        2.047892625        0.000000000        2.047892625
lattice        2.047892625        2.047892625        0.000000000
atom     0.000000     0.000000     0.000000    Au   0.0   0.0    -0.000000    -0.000000     0.000000
energy       -3.922360280
charge        0.0
end
begin
comment | tag=A12-1 | frame=1/1 | file=A12-1/y_stretch/y_dir/1.00400000
lattice        0.000000000        2.048913000        2.048913000
lattice        2.048913000        0.000000000        2.048913000
lattice        2.048913000        2.048913000        0.000000000
atom     0.000000     0.000000     0.000000    Au   0.0   0.0     0.000000     0.000000    -0.000000
energy       -3.922054190
charge        0.0
end
begin
comment | tag=A13-1 | frame=1/1 | file=A13-1/y_stretch/y_dir/0.99600000
lattice       -1.614724328        1.614724328        1.614724328
lattice        1.614724328       -1.614724328        1.614724328
lattice        1.614724328        1.614724328       -1.614724328
atom     0.000000     0.000000     0.000000    Au   0.0   0.0     0.000000    -0.000000     0.000000
energy       -3.900098610
charge        0.0
end
begin
comment | tag=A13-1 | frame=1/1 | file=A13-1/y_stretch/y_dir/0.99650000
lattice       -1.615534933        1.615534933        1.615534933
lattice        1.615534933       -1.615534933        1.615534933
lattice        1.615534933        1.615534933       -1.615534933
atom     0.000000     0.000000     0.000000    Au   0.0   0.0     0.000000     0.000000    -0.000000
energy       -3.900409150
charge        0.0
end
begin
comment | tag=A13-1 | frame=1/1 | file=A13-1/y_stretch/y_dir/0.99700000
lattice       -1.616345537        1.616345537        1.616345537
lattice        1.616345537       -1.616345537        1.616345537
lattice        1.616345537        1.616345537       -1.616345537
atom     0.000000     0.000000     0.000000    Au   0.0   0.0     0.000000    -0.000000    -0.000000
energy       -3.900675980
charge        0.0
end
begin
comment | tag=A13-1 | frame=1/1 | file=A13-1/y_stretch/y_dir/0.99750000
lattice       -1.617156142        1.617156142        1.617156142
lattice        1.617156142       -1.617156142        1.617156142
lattice        1.617156142        1.617156142       -1.617156142
atom     0.000000     0.000000     0.000000    Au   0.0   0.0    -0.000000     0.000000    -0.000000
energy       -3.900900680
charge        0.0
end
begin
comment | tag=A13-1 | frame=1/1 | file=A13-1/y_stretch/y_dir/0.99800000
lattice       -1.617966746        1.617966746        1.617966746
lattice        1.617966746       -1.617966746        1.617966746
lattice        1.617966746        1.617966746       -1.617966746
atom     0.000000     0.000000     0.000000    Au   0.0   0.0     0.000000     0.000000    -0.000000
energy       -3.901082040
charge        0.0
end
begin
comment | tag=A13-1 | frame=1/1 | file=A13-1/y_stretch/y_dir/0.99850000
lattice       -1.618777351        1.618777351        1.618777351
lattice        1.618777351       -1.618777351        1.618777351
lattice        1.618777351        1.618777351       -1.618777351
atom     0.000000     0.000000     0.000000    Au   0.0   0.0     0.000000     0.000000    -0.000000
energy       -3.901220470
charge        0.0
end
begin
comment | tag=A13-1 | frame=1/1 | file=A13-1/y_stretch/y_dir/0.99900000
lattice       -1.619587956        1.619587956        1.619587956
lattice        1.619587956       -1.619587956        1.619587956
lattice        1.619587956        1.619587956       -1.619587956
atom     0.000000     0.000000     0.000000    Au   0.0   0.0     0.000000     0.000000     0.000000
energy       -3.901318480
charge        0.0
end
begin
comment | tag=A13-1 | frame=1/1 | file=A13-1/y_stretch/y_dir/0.99950000
lattice       -1.620398560        1.620398560        1.620398560
lattice        1.620398560       -1.620398560        1.620398560
lattice        1.620398560        1.620398560       -1.620398560
atom     0.000000     0.000000     0.000000    Au   0.0   0.0    -0.000000     0.000000     0.000000
energy       -3.901370290
charge        0.0
end
begin
comment | tag=A13-1 | frame=1/1 | file=A13-1/y_stretch/y_dir/1.00000000
lattice       -1.621209165        1.621209165        1.621209165
lattice        1.621209165       -1.621209165        1.621209165
lattice        1.621209165        1.621209165       -1.621209165
atom     0.000000     0.000000     0.000000    Au   0.0   0.0     0.000000    -0.000000     0.000000
energy       -3.901384370
charge        0.0
end
begin
comment | tag=A13-1 | frame=1/1 | file=A13-1/y_stretch/y_dir/1.00050000
lattice       -1.622019769        1.622019769        1.622019769
lattice        1.622019769       -1.622019769        1.622019769
lattice        1.622019769        1.622019769       -1.622019769
atom     0.000000     0.000000     0.000000    Au   0.0   0.0     0.000000     0.000000     0.000000
energy       -3.901355870
charge        0.0
end
begin
comment | tag=A13-1 | frame=1/1 | file=A13-1/y_stretch/y_dir/1.00100000
lattice       -1.622830374        1.622830374        1.622830374
lattice        1.622830374       -1.622830374        1.622830374
lattice        1.622830374        1.622830374       -1.622830374
atom     0.000000     0.000000     0.000000    Au   0.0   0.0    -0.000000     0.000000     0.000000
energy       -3.901288640
charge        0.0
end
begin
comment | tag=A13-1 | frame=1/1 | file=A13-1/y_stretch/y_dir/1.00150000
lattice       -1.623640979        1.623640979        1.623640979
lattice        1.623640979       -1.623640979        1.623640979
lattice        1.623640979        1.623640979       -1.623640979
atom     0.000000     0.000000     0.000000    Au   0.0   0.0    -0.000000    -0.000000    -0.000000
energy       -3.901176400
charge        0.0
end
begin
comment | tag=A13-1 | frame=1/1 | file=A13-1/y_stretch/y_dir/1.00200000
lattice       -1.624451583        1.624451583        1.624451583
lattice        1.624451583       -1.624451583        1.624451583
lattice        1.624451583        1.624451583       -1.624451583
atom     0.000000     0.000000     0.000000    Au   0.0   0.0    -0.000000    -0.000000     0.000000
energy       -3.901027800
charge        0.0
end
begin
comment | tag=A13-1 | frame=1/1 | file=A13-1/y_stretch/y_dir/1.00250000
lattice       -1.625262188        1.625262188        1.625262188
lattice        1.625262188       -1.625262188        1.625262188
lattice        1.625262188        1.625262188       -1.625262188
atom     0.000000     0.000000     0.000000    Au   0.0   0.0    -0.000000     0.000000    -0.000000
energy       -3.900837300
charge        0.0
end
begin
comment | tag=A13-1 | frame=1/1 | file=A13-1/y_stretch/y_dir/1.00300000
lattice       -1.626072792        1.626072792        1.626072792
lattice        1.626072792       -1.626072792        1.626072792
lattice        1.626072792        1.626072792       -1.626072792
atom     0.000000     0.000000     0.000000    Au   0.0   0.0     0.000000    -0.000000     0.000000
energy       -3.900607980
charge        0.0
end
begin
comment | tag=A13-1 | frame=1/1 | file=A13-1/y_stretch/y_dir/1.00350000
lattice       -1.626883397        1.626883397        1.626883397
lattice        1.626883397       -1.626883397        1.626883397
lattice        1.626883397        1.626883397       -1.626883397
atom     0.000000     0.000000     0.000000    Au   0.0   0.0     0.000000    -0.000000     0.000000
energy       -3.900338430
charge        0.0
end
begin
comment | tag=A13-1 | frame=1/1 | file=A13-1/y_stretch/y_dir/1.00400000
lattice       -1.627694001        1.627694001        1.627694001
lattice        1.627694001       -1.627694001        1.627694001
lattice        1.627694001        1.627694001       -1.627694001
atom     0.000000     0.000000     0.000000    Au   0.0   0.0     0.000000    -0.000000     0.000000
energy       -3.900030100
charge        0.0
end
