Au HCP crystal

3808 atoms
1 atom types

-20 20 xlo xhi
-20 20 ylo yhi
-20 20 zlo zhi

Masses

1 196.97

Atoms

1 1 -19.9161 -19.4975 -18.3825
2 1 -18.4729 -16.9979 -18.3825
3 1 -18.4729 -15.3314 -16.0257
4 1 -19.9161 -17.8311 -16.0257
5 1 -19.9161 -19.4975 -13.669
6 1 -18.4729 -16.9979 -13.669
7 1 -18.4729 -15.3314 -11.3123
8 1 -19.9161 -17.8311 -11.3123
9 1 -19.9161 -19.4975 -8.95556
10 1 -18.4729 -16.9979 -8.95556
11 1 -18.4729 -15.3314 -6.59883
12 1 -19.9161 -17.8311 -6.59883
13 1 -19.9161 -19.4975 -4.24211
14 1 -18.4729 -16.9979 -4.24211
15 1 -18.4729 -15.3314 -1.88538
16 1 -19.9161 -17.8311 -1.88538
17 1 -19.9161 -19.4975 0.471345
18 1 -18.4729 -16.9979 0.471345
19 1 -18.4729 -15.3314 2.82807
20 1 -19.9161 -17.8311 2.82807
21 1 -19.9161 -19.4975 5.1848
22 1 -18.4729 -16.9979 5.1848
23 1 -18.4729 -15.3314 7.54152
24 1 -19.9161 -17.8311 7.54152
25 1 -19.9161 -19.4975 9.89825
26 1 -18.4729 -16.9979 9.89825
27 1 -18.4729 -15.3314 12.255
28 1 -19.9161 -17.8311 12.255
29 1 -19.9161 -19.4975 14.6117
30 1 -18.4729 -16.9979 14.6117
31 1 -18.4729 -15.3314 16.9684
32 1 -19.9161 -17.8311 16.9684
33 1 -19.9161 -19.4975 19.3252
34 1 -18.4729 -16.9979 19.3252
35 1 -19.9161 -14.4982 -18.3825
36 1 -18.4729 -11.9985 -18.3825
37 1 -18.4729 -10.332 -16.0257
38 1 -19.9161 -12.8317 -16.0257
39 1 -19.9161 -14.4982 -13.669
40 1 -18.4729 -11.9985 -13.669
41 1 -18.4729 -10.332 -11.3123
42 1 -19.9161 -12.8317 -11.3123
43 1 -19.9161 -14.4982 -8.95556
44 1 -18.4729 -11.9985 -8.95556
45 1 -18.4729 -10.332 -6.59883
46 1 -19.9161 -12.8317 -6.59883
47 1 -19.9161 -14.4982 -4.24211
48 1 -18.4729 -11.9985 -4.24211
49 1 -18.4729 -10.332 -1.88538
50 1 -19.9161 -12.8317 -1.88538
51 1 -19.9161 -14.4982 0.471345
52 1 -18.4729 -11.9985 0.471345
53 1 -18.4729 -10.332 2.82807
54 1 -19.9161 -12.8317 2.82807
55 1 -19.9161 -14.4982 5.1848
56 1 -18.4729 -11.9985 5.1848
57 1 -18.4729 -10.332 7.54152
58 1 -19.9161 -12.8317 7.54152
59 1 -19.9161 -14.4982 9.89825
60 1 -18.4729 -11.9985 9.89825
61 1 -18.4729 -10.332 12.255
62 1 -19.9161 -12.8317 12.255
63 1 -19.9161 -14.4982 14.6117
64 1 -18.4729 -11.9985 14.6117
65 1 -18.4729 -10.332 16.9684
66 1 -19.9161 -12.8317 16.9684
67 1 -19.9161 -14.4982 19.3252
68 1 -18.4729 -11.9985 19.3252
69 1 -19.9161 -9.4988 -18.3825
70 1 -18.4729 -6.99912 -18.3825
71 1 -18.4729 -5.33266 -16.0257
72 1 -19.9161 -7.83235 -16.0257
73 1 -19.9161 -9.4988 -13.669
74 1 -18.4729 -6.99912 -13.669
75 1 -18.4729 -5.33266 -11.3123
76 1 -19.9161 -7.83235 -11.3123
77 1 -19.9161 -9.4988 -8.95556
78 1 -18.4729 -6.99912 -8.95556
79 1 -18.4729 -5.33266 -6.59883
80 1 -19.9161 -7.83235 -6.59883
81 1 -19.9161 -9.4988 -4.24211
82 1 -18.4729 -6.99912 -4.24211
83 1 -18.4729 -5.33266 -1.88538
84 1 -19.9161 -7.83235 -1.88538
85 1 -19.9161 -9.4988 0.471345
86 1 -18.4729 -6.99912 0.471345
87 1 -18.4729 -5.33266 2.82807
88 1 -19.9161 -7.83235 2.82807
89 1 -19.9161 -9.4988 5.1848
90 1 -18.4729 -6.99912 5.1848
91 1 -18.4729 -5.33266 7.54152
92 1 -19.9161 -7.83235 7.54152
93 1 -19.9161 -9.4988 9.89825
94 1 -18.4729 -6.99912 9.89825
95 1 -18.4729 -5.33266 12.255
96 1 -19.9161 -7.83235 12.255
97 1 -19.9161 -9.4988 14.6117
98 1 -18.4729 -6.99912 14.6117
99 1 -18.4729 -5.33266 16.9684
100 1 -19.9161 -7.83235 16.9684
101 1 -19.9161 -9.4988 19.3252
102 1 -18.4729 -6.99912 19.3252
103 1 -19.9161 -4.49943 -18.3825
104 1 -18.4729 -1.99975 -18.3825
105 1 -18.4729 -0.333291 -16.0257
106 1 -19.9161 -2.83298 -16.0257
107 1 -19.9161 -4.49943 -13.669
108 1 -18.4729 -1.99975 -13.669
109 1 -18.4729 -0.333291 -11.3123
110 1 -19.9161 -2.83298 -11.3123
111 1 -19.9161 -4.49943 -8.95556
112 1 -18.4729 -1.99975 -8.95556
113 1 -18.4729 -0.333291 -6.59883
114 1 -19.9161 -2.83298 -6.59883
115 1 -19.9161 -4.49943 -4.24211
116 1 -18.4729 -1.99975 -4.24211
117 1 -18.4729 -0.333291 -1.88538
118 1 -19.9161 -2.83298 -1.88538
119 1 -19.9161 -4.49943 0.471345
120 1 -18.4729 -1.99975 0.471345
121 1 -18.4729 -0.333291 2.82807
122 1 -19.9161 -2.83298 2.82807
123 1 -19.9161 -4.49943 5.1848
124 1 -18.4729 -1.99975 5.1848
125 1 -18.4729 -0.333291 7.54152
126 1 -19.9161 -2.83298 7.54152
127 1 -19.9161 -4.49943 9.89825
128 1 -18.4729 -1.99975 9.89825
129 1 -18.4729 -0.333291 12.255
130 1 -19.9161 -2.83298 12.255
131 1 -19.9161 -4.49943 14.6117
132 1 -18.4729 -1.99975 14.6117
133 1 -18.4729 -0.333291 16.9684
134 1 -19.9161 -2.83298 16.9684
135 1 -19.9161 -4.49943 19.3252
136 1 -18.4729 -1.99975 19.3252
137 1 -19.9161 0.499937 -18.3825
138 1 -18.4729 2.99962 -18.3825
139 1 -18.4729 4.66608 -16.0257
140 1 -19.9161 2.16639 -16.0257
141 1 -19.9161 0.499937 -13.669
142 1 -18.4729 2.99962 -13.669
143 1 -18.4729 4.66608 -11.3123
144 1 -19.9161 2.16639 -11.3123
145 1 -19.9161 0.499937 -8.95556
146 1 -18.4729 2.99962 -8.95556
147 1 -18.4729 4.66608 -6.59883
148 1 -19.9161 2.16639 -6.59883
149 1 -19.9161 0.499937 -4.24211
150 1 -18.4729 2.99962 -4.24211
151 1 -18.4729 4.66608 -1.88538
152 1 -19.9161 2.16639 -1.88538
153 1 -19.9161 0.499937 0.471345
154 1 -18.4729 2.99962 0.471345
155 1 -18.4729 4.66608 2.82807
156 1 -19.9161 2.16639 2.82807
157 1 -19.9161 0.499937 5.1848
158 1 -18.4729 2.99962 5.1848
159 1 -18.4729 4.66608 7.54152
160 1 -19.9161 2.16639 7.54152
161 1 -19.9161 0.499937 9.89825
162 1 -18.4729 2.99962 9.89825
163 1 -18.4729 4.66608 12.255
164 1 -19.9161 2.16639 12.255
165 1 -19.9161 0.499937 14.6117
166 1 -18.4729 2.99962 14.6117
167 1 -18.4729 4.66608 16.9684
168 1 -19.9161 2.16639 16.9684
169 1 -19.9161 0.499937 19.3252
170 1 -18.4729 2.99962 19.3252
171 1 -19.9161 5.49931 -18.3825
172 1 -18.4729 7.99899 -18.3825
173 1 -18.4729 9.66545 -16.0257
174 1 -19.9161 7.16577 -16.0257
175 1 -19.9161 5.49931 -13.669
176 1 -18.4729 7.99899 -13.669
177 1 -18.4729 9.66545 -11.3123
178 1 -19.9161 7.16577 -11.3123
179 1 -19.9161 5.49931 -8.95556
180 1 -18.4729 7.99899 -8.95556
181 1 -18.4729 9.66545 -6.59883
182 1 -19.9161 7.16577 -6.59883
183 1 -19.9161 5.49931 -4.24211
184 1 -18.4729 7.99899 -4.24211
185 1 -18.4729 9.66545 -1.88538
186 1 -19.9161 7.16577 -1.88538
187 1 -19.9161 5.49931 0.471345
188 1 -18.4729 7.99899 0.471345
189 1 -18.4729 9.66545 2.82807
190 1 -19.9161 7.16577 2.82807
191 1 -19.9161 5.49931 5.1848
192 1 -18.4729 7.99899 5.1848
193 1 -18.4729 9.66545 7.54152
194 1 -19.9161 7.16577 7.54152
195 1 -19.9161 5.49931 9.89825
196 1 -18.4729 7.99899 9.89825
197 1 -18.4729 9.66545 12.255
198 1 -19.9161 7.16577 12.255
199 1 -19.9161 5.49931 14.6117
200 1 -18.4729 7.99899 14.6117
201 1 -18.4729 9.66545 16.9684
202 1 -19.9161 7.16577 16.9684
203 1 -19.9161 5.49931 19.3252
204 1 -18.4729 7.99899 19.3252
205 1 -19.9161 10.4987 -18.3825
206 1 -18.4729 12.9984 -18.3825
207 1 -18.4729 14.6648 -16.0257
208 1 -19.9161 12.1651 -16.0257
209 1 -19.9161 10.4987 -13.669
210 1 -18.4729 12.9984 -13.669
211 1 -18.4729 14.6648 -11.3123
212 1 -19.9161 12.1651 -11.3123
213 1 -19.9161 10.4987 -8.95556
214 1 -18.4729 12.9984 -8.95556
215 1 -18.4729 14.6648 -6.59883
216 1 -19.9161 12.1651 -6.59883
217 1 -19.9161 10.4987 -4.24211
218 1 -18.4729 12.9984 -4.24211
219 1 -18.4729 14.6648 -1.88538
220 1 -19.9161 12.1651 -1.88538
221 1 -19.9161 10.4987 0.471345
222 1 -18.4729 12.9984 0.471345
223 1 -18.4729 14.6648 2.82807
224 1 -19.9161 12.1651 2.82807
225 1 -19.9161 10.4987 5.1848
226 1 -18.4729 12.9984 5.1848
227 1 -18.4729 14.6648 7.54152
228 1 -19.9161 12.1651 7.54152
229 1 -19.9161 10.4987 9.89825
230 1 -18.4729 12.9984 9.89825
231 1 -18.4729 14.6648 12.255
232 1 -19.9161 12.1651 12.255
233 1 -19.9161 10.4987 14.6117
234 1 -18.4729 12.9984 14.6117
235 1 -18.4729 14.6648 16.9684
236 1 -19.9161 12.1651 16.9684
237 1 -19.9161 10.4987 19.3252
238 1 -18.4729 12.9984 19.3252
239 1 -19.9161 15.4981 -18.3825
240 1 -18.4729 17.9977 -18.3825
241 1 -18.4729 19.6642 -16.0257
242 1 -19.9161 17.1645 -16.0257
243 1 -19.9161 15.4981 -13.669
244 1 -18.4729 17.9977 -13.669
245 1 -18.4729 19.6642 -11.3123
246 1 -19.9161 17.1645 -11.3123
247 1 -19.9161 15.4981 -8.95556
248 1 -18.4729 17.9977 -8.95556
249 1 -18.4729 19.6642 -6.59883
250 1 -19.9161 17.1645 -6.59883
251 1 -19.9161 15.4981 -4.24211
252 1 -18.4729 17.9977 -4.24211
253 1 -18.4729 19.6642 -1.88538
254 1 -19.9161 17.1645 -1.88538
255 1 -19.9161 15.4981 0.471345
256 1 -18.4729 17.9977 0.471345
257 1 -18.4729 19.6642 2.82807
258 1 -19.9161 17.1645 2.82807
259 1 -19.9161 15.4981 5.1848
260 1 -18.4729 17.9977 5.1848
261 1 -18.4729 19.6642 7.54152
262 1 -19.9161 17.1645 7.54152
263 1 -19.9161 15.4981 9.89825
264 1 -18.4729 17.9977 9.89825
265 1 -18.4729 19.6642 12.255
266 1 -19.9161 17.1645 12.255
267 1 -19.9161 15.4981 14.6117
268 1 -18.4729 17.9977 14.6117
269 1 -18.4729 19.6642 16.9684
270 1 -19.9161 17.1645 16.9684
271 1 -19.9161 15.4981 19.3252
272 1 -18.4729 17.9977 19.3252
273 1 -17.0297 -19.4975 -18.3825
274 1 -15.5865 -16.9979 -18.3825
275 1 -15.5865 -15.3314 -16.0257
276 1 -17.0297 -17.8311 -16.0257
277 1 -17.0297 -19.4975 -13.669
278 1 -15.5865 -16.9979 -13.669
279 1 -15.5865 -15.3314 -11.3123
280 1 -17.0297 -17.8311 -11.3123
281 1 -17.0297 -19.4975 -8.95556
282 1 -15.5865 -16.9979 -8.95556
283 1 -15.5865 -15.3314 -6.59883
284 1 -17.0297 -17.8311 -6.59883
285 1 -17.0297 -19.4975 -4.24211
286 1 -15.5865 -16.9979 -4.24211
287 1 -15.5865 -15.3314 -1.88538
288 1 -17.0297 -17.8311 -1.88538
289 1 -17.0297 -19.4975 0.471345
290 1 -15.5865 -16.9979 0.471345
291 1 -15.5865 -15.3314 2.82807
292 1 -17.0297 -17.8311 2.82807
293 1 -17.0297 -19.4975 5.1848
294 1 -15.5865 -16.9979 5.1848
295 1 -15.5865 -15.3314 7.54152
296 1 -17.0297 -17.8311 7.54152
297 1 -17.0297 -19.4975 9.89825
298 1 -15.5865 -16.9979 9.89825
299 1 -15.5865 -15.3314 12.255
300 1 -17.0297 -17.8311 12.255
301 1 -17.0297 -19.4975 14.6117
302 1 -15.5865 -16.9979 14.6117
303 1 -15.5865 -15.3314 16.9684
304 1 -17.0297 -17.8311 16.9684
305 1 -17.0297 -19.4975 19.3252
306 1 -15.5865 -16.9979 19.3252
307 1 -17.0297 -14.4982 -18.3825
308 1 -15.5865 -11.9985 -18.3825
309 1 -15.5865 -10.332 -16.0257
310 1 -17.0297 -12.8317 -16.0257
311 1 -17.0297 -14.4982 -13.669
312 1 -15.5865 -11.9985 -13.669
313 1 -15.5865 -10.332 -11.3123
314 1 -17.0297 -12.8317 -11.3123
315 1 -17.0297 -14.4982 -8.95556
316 1 -15.5865 -11.9985 -8.95556
317 1 -15.5865 -10.332 -6.59883
318 1 -17.0297 -12.8317 -6.59883
319 1 -17.0297 -14.4982 -4.24211
320 1 -15.5865 -11.9985 -4.24211
321 1 -15.5865 -10.332 -1.88538
322 1 -17.0297 -12.8317 -1.88538
323 1 -17.0297 -14.4982 0.471345
324 1 -15.5865 -11.9985 0.471345
325 1 -15.5865 -10.332 2.82807
326 1 -17.0297 -12.8317 2.82807
327 1 -17.0297 -14.4982 5.1848
328 1 -15.5865 -11.9985 5.1848
329 1 -15.5865 -10.332 7.54152
330 1 -17.0297 -12.8317 7.54152
331 1 -17.0297 -14.4982 9.89825
332 1 -15.5865 -11.9985 9.89825
333 1 -15.5865 -10.332 12.255
334 1 -17.0297 -12.8317 12.255
335 1 -17.0297 -14.4982 14.6117
336 1 -15.5865 -11.9985 14.6117
337 1 -15.5865 -10.332 16.9684
338 1 -17.0297 -12.8317 16.9684
339 1 -17.0297 -14.4982 19.3252
340 1 -15.5865 -11.9985 19.3252
341 1 -17.0297 -9.4988 -18.3825
342 1 -15.5865 -6.99912 -18.3825
343 1 -15.5865 -5.33266 -16.0257
344 1 -17.0297 -7.83235 -16.0257
345 1 -17.0297 -9.4988 -13.669
346 1 -15.5865 -6.99912 -13.669
347 1 -15.5865 -5.33266 -11.3123
348 1 -17.0297 -7.83235 -11.3123
349 1 -17.0297 -9.4988 -8.95556
350 1 -15.5865 -6.99912 -8.95556
351 1 -15.5865 -5.33266 -6.59883
352 1 -17.0297 -7.83235 -6.59883
353 1 -17.0297 -9.4988 -4.24211
354 1 -15.5865 -6.99912 -4.24211
355 1 -15.5865 -5.33266 -1.88538
356 1 -17.0297 -7.83235 -1.88538
357 1 -17.0297 -9.4988 0.471345
358 1 -15.5865 -6.99912 0.471345
359 1 -15.5865 -5.33266 2.82807
360 1 -17.0297 -7.83235 2.82807
361 1 -17.0297 -9.4988 5.1848
362 1 -15.5865 -6.99912 5.1848
363 1 -15.5865 -5.33266 7.54152
364 1 -17.0297 -7.83235 7.54152
365 1 -17.0297 -9.4988 9.89825
366 1 -15.5865 -6.99912 9.89825
367 1 -15.5865 -5.33266 12.255
368 1 -17.0297 -7.83235 12.255
369 1 -17.0297 -9.4988 14.6117
370 1 -15.5865 -6.99912 14.6117
371 1 -15.5865 -5.33266 16.9684
372 1 -17.0297 -7.83235 16.9684
373 1 -17.0297 -9.4988 19.3252
374 1 -15.5865 -6.99912 19.3252
375 1 -17.0297 -4.49943 -18.3825
376 1 -15.5865 -1.99975 -18.3825
377 1 -15.5865 -0.333291 -16.0257
378 1 -17.0297 -2.83298 -16.0257
379 1 -17.0297 -4.49943 -13.669
380 1 -15.5865 -1.99975 -13.669
381 1 -15.5865 -0.333291 -11.3123
382 1 -17.0297 -2.83298 -11.3123
383 1 -17.0297 -4.49943 -8.95556
384 1 -15.5865 -1.99975 -8.95556
385 1 -15.5865 -0.333291 -6.59883
386 1 -17.0297 -2.83298 -6.59883
387 1 -17.0297 -4.49943 -4.24211
388 1 -15.5865 -1.99975 -4.24211
389 1 -15.5865 -0.333291 -1.88538
390 1 -17.0297 -2.83298 -1.88538
391 1 -17.0297 -4.49943 0.471345
392 1 -15.5865 -1.99975 0.471345
393 1 -15.5865 -0.333291 2.82807
394 1 -17.0297 -2.83298 2.82807
395 1 -17.0297 -4.49943 5.1848
396 1 -15.5865 -1.99975 5.1848
397 1 -15.5865 -0.333291 7.54152
398 1 -17.0297 -2.83298 7.54152
399 1 -17.0297 -4.49943 9.89825
400 1 -15.5865 -1.99975 9.89825
401 1 -15.5865 -0.333291 12.255
402 1 -17.0297 -2.83298 12.255
403 1 -17.0297 -4.49943 14.6117
404 1 -15.5865 -1.99975 14.6117
405 1 -15.5865 -0.333291 16.9684
406 1 -17.0297 -2.83298 16.9684
407 1 -17.0297 -4.49943 19.3252
408 1 -15.5865 -1.99975 19.3252
409 1 -17.0297 0.499937 -18.3825
410 1 -15.5865 2.99962 -18.3825
411 1 -15.5865 4.66608 -16.0257
412 1 -17.0297 2.16639 -16.0257
413 1 -17.0297 0.499937 -13.669
414 1 -15.5865 2.99962 -13.669
415 1 -15.5865 4.66608 -11.3123
416 1 -17.0297 2.16639 -11.3123
417 1 -17.0297 0.499937 -8.95556
418 1 -15.5865 2.99962 -8.95556
419 1 -15.5865 4.66608 -6.59883
420 1 -17.0297 2.16639 -6.59883
421 1 -17.0297 0.499937 -4.24211
422 1 -15.5865 2.99962 -4.24211
423 1 -15.5865 4.66608 -1.88538
424 1 -17.0297 2.16639 -1.88538
425 1 -17.0297 0.499937 0.471345
426 1 -15.5865 2.99962 0.471345
427 1 -15.5865 4.66608 2.82807
428 1 -17.0297 2.16639 2.82807
429 1 -17.0297 0.499937 5.1848
430 1 -15.5865 2.99962 5.1848
431 1 -15.5865 4.66608 7.54152
432 1 -17.0297 2.16639 7.54152
433 1 -17.0297 0.499937 9.89825
434 1 -15.5865 2.99962 9.89825
435 1 -15.5865 4.66608 12.255
436 1 -17.0297 2.16639 12.255
437 1 -17.0297 0.499937 14.6117
438 1 -15.5865 2.99962 14.6117
439 1 -15.5865 4.66608 16.9684
440 1 -17.0297 2.16639 16.9684
441 1 -17.0297 0.499937 19.3252
442 1 -15.5865 2.99962 19.3252
443 1 -17.0297 5.49931 -18.3825
444 1 -15.5865 7.99899 -18.3825
445 1 -15.5865 9.66545 -16.0257
446 1 -17.0297 7.16577 -16.0257
447 1 -17.0297 5.49931 -13.669
448 1 -15.5865 7.99899 -13.669
449 1 -15.5865 9.66545 -11.3123
450 1 -17.0297 7.16577 -11.3123
451 1 -17.0297 5.49931 -8.95556
452 1 -15.5865 7.99899 -8.95556
453 1 -15.5865 9.66545 -6.59883
454 1 -17.0297 7.16577 -6.59883
455 1 -17.0297 5.49931 -4.24211
456 1 -15.5865 7.99899 -4.24211
457 1 -15.5865 9.66545 -1.88538
458 1 -17.0297 7.16577 -1.88538
459 1 -17.0297 5.49931 0.471345
460 1 -15.5865 7.99899 0.471345
461 1 -15.5865 9.66545 2.82807
462 1 -17.0297 7.16577 2.82807
463 1 -17.0297 5.49931 5.1848
464 1 -15.5865 7.99899 5.1848
465 1 -15.5865 9.66545 7.54152
466 1 -17.0297 7.16577 7.54152
467 1 -17.0297 5.49931 9.89825
468 1 -15.5865 7.99899 9.89825
469 1 -15.5865 9.66545 12.255
470 1 -17.0297 7.16577 12.255
471 1 -17.0297 5.49931 14.6117
472 1 -15.5865 7.99899 14.6117
473 1 -15.5865 9.66545 16.9684
474 1 -17.0297 7.16577 16.9684
475 1 -17.0297 5.49931 19.3252
476 1 -15.5865 7.99899 19.3252
477 1 -17.0297 10.4987 -18.3825
478 1 -15.5865 12.9984 -18.3825
479 1 -15.5865 14.6648 -16.0257
480 1 -17.0297 12.1651 -16.0257
481 1 -17.0297 10.4987 -13.669
482 1 -15.5865 12.9984 -13.669
483 1 -15.5865 14.6648 -11.3123
484 1 -17.0297 12.1651 -11.3123
485 1 -17.0297 10.4987 -8.95556
486 1 -15.5865 12.9984 -8.95556
487 1 -15.5865 14.6648 -6.59883
488 1 -17.0297 12.1651 -6.59883
489 1 -17.0297 10.4987 -4.24211
490 1 -15.5865 12.9984 -4.24211
491 1 -15.5865 14.6648 -1.88538
492 1 -17.0297 12.1651 -1.88538
493 1 -17.0297 10.4987 0.471345
494 1 -15.5865 12.9984 0.471345
495 1 -15.5865 14.6648 2.82807
496 1 -17.0297 12.1651 2.82807
497 1 -17.0297 10.4987 5.1848
498 1 -15.5865 12.9984 5.1848
499 1 -15.5865 14.6648 7.54152
500 1 -17.0297 12.1651 7.54152
501 1 -17.0297 10.4987 9.89825
502 1 -15.5865 12.9984 9.89825
503 1 -15.5865 14.6648 12.255
504 1 -17.0297 12.1651 12.255
505 1 -17.0297 10.4987 14.6117
506 1 -15.5865 12.9984 14.6117
507 1 -15.5865 14.6648 16.9684
508 1 -17.0297 12.1651 16.9684
509 1 -17.0297 10.4987 19.3252
510 1 -15.5865 12.9984 19.3252
511 1 -17.0297 15.4981 -18.3825
512 1 -15.5865 17.9977 -18.3825
513 1 -15.5865 19.6642 -16.0257
514 1 -17.0297 17.1645 -16.0257
515 1 -17.0297 15.4981 -13.669
516 1 -15.5865 17.9977 -13.669
517 1 -15.5865 19.6642 -11.3123
518 1 -17.0297 17.1645 -11.3123
519 1 -17.0297 15.4981 -8.95556
520 1 -15.5865 17.9977 -8.95556
521 1 -15.5865 19.6642 -6.59883
522 1 -17.0297 17.1645 -6.59883
523 1 -17.0297 15.4981 -4.24211
524 1 -15.5865 17.9977 -4.24211
525 1 -15.5865 19.6642 -1.88538
526 1 -17.0297 17.1645 -1.88538
527 1 -17.0297 15.4981 0.471345
528 1 -15.5865 17.9977 0.471345
529 1 -15.5865 19.6642 2.82807
530 1 -17.0297 17.1645 2.82807
531 1 -17.0297 15.4981 5.1848
532 1 -15.5865 17.9977 5.1848
533 1 -15.5865 19.6642 7.54152
534 1 -17.0297 17.1645 7.54152
535 1 -17.0297 15.4981 9.89825
536 1 -15.5865 17.9977 9.89825
537 1 -15.5865 19.6642 12.255
538 1 -17.0297 17.1645 12.255
539 1 -17.0297 15.4981 14.6117
540 1 -15.5865 17.9977 14.6117
541 1 -15.5865 19.6642 16.9684
542 1 -17.0297 17.1645 16.9684
543 1 -17.0297 15.4981 19.3252
544 1 -15.5865 17.9977 19.3252
545 1 -14.1433 -19.4975 -18.3825
546 1 -12.7001 -16.9979 -18.3825
547 1 -12.7001 -15.3314 -16.0257
548 1 -14.1433 -17.8311 -16.0257
549 1 -14.1433 -19.4975 -13.669
550 1 -12.7001 -16.9979 -13.669
551 1 -12.7001 -15.3314 -11.3123
552 1 -14.1433 -17.8311 -11.3123
553 1 -14.1433 -19.4975 -8.95556
554 1 -12.7001 -16.9979 -8.95556
555 1 -12.7001 -15.3314 -6.59883
556 1 -14.1433 -17.8311 -6.59883
557 1 -14.1433 -19.4975 -4.24211
558 1 -12.7001 -16.9979 -4.24211
559 1 -12.7001 -15.3314 -1.88538
560 1 -14.1433 -17.8311 -1.88538
561 1 -14.1433 -19.4975 0.471345
562 1 -12.7001 -16.9979 0.471345
563 1 -12.7001 -15.3314 2.82807
564 1 -14.1433 -17.8311 2.82807
565 1 -14.1433 -19.4975 5.1848
566 1 -12.7001 -16.9979 5.1848
567 1 -12.7001 -15.3314 7.54152
568 1 -14.1433 -17.8311 7.54152
569 1 -14.1433 -19.4975 9.89825
570 1 -12.7001 -16.9979 9.89825
571 1 -12.7001 -15.3314 12.255
572 1 -14.1433 -17.8311 12.255
573 1 -14.1433 -19.4975 14.6117
574 1 -12.7001 -16.9979 14.6117
575 1 -12.7001 -15.3314 16.9684
576 1 -14.1433 -17.8311 16.9684
577 1 -14.1433 -19.4975 19.3252
578 1 -12.7001 -16.9979 19.3252
579 1 -14.1433 -14.4982 -18.3825
580 1 -12.7001 -11.9985 -18.3825
581 1 -12.7001 -10.332 -16.0257
582 1 -14.1433 -12.8317 -16.0257
583 1 -14.1433 -14.4982 -13.669
584 1 -12.7001 -11.9985 -13.669
585 1 -12.7001 -10.332 -11.3123
586 1 -14.1433 -12.8317 -11.3123
587 1 -14.1433 -14.4982 -8.95556
588 1 -12.7001 -11.9985 -8.95556
589 1 -12.7001 -10.332 -6.59883
590 1 -14.1433 -12.8317 -6.59883
591 1 -14.1433 -14.4982 -4.24211
592 1 -12.7001 -11.9985 -4.24211
593 1 -12.7001 -10.332 -1.88538
594 1 -14.1433 -12.8317 -1.88538
595 1 -14.1433 -14.4982 0.471345
596 1 -12.7001 -11.9985 0.471345
597 1 -12.7001 -10.332 2.82807
598 1 -14.1433 -12.8317 2.82807
599 1 -14.1433 -14.4982 5.1848
600 1 -12.7001 -11.9985 5.1848
601 1 -12.7001 -10.332 7.54152
602 1 -14.1433 -12.8317 7.54152
603 1 -14.1433 -14.4982 9.89825
604 1 -12.7001 -11.9985 9.89825
605 1 -12.7001 -10.332 12.255
606 1 -14.1433 -12.8317 12.255
607 1 -14.1433 -14.4982 14.6117
608 1 -12.7001 -11.9985 14.6117
609 1 -12.7001 -10.332 16.9684
610 1 -14.1433 -12.8317 16.9684
611 1 -14.1433 -14.4982 19.3252
612 1 -12.7001 -11.9985 19.3252
613 1 -14.1433 -9.4988 -18.3825
614 1 -12.7001 -6.99912 -18.3825
615 1 -12.7001 -5.33266 -16.0257
616 1 -14.1433 -7.83235 -16.0257
617 1 -14.1433 -9.4988 -13.669
618 1 -12.7001 -6.99912 -13.669
619 1 -12.7001 -5.33266 -11.3123
620 1 -14.1433 -7.83235 -11.3123
621 1 -14.1433 -9.4988 -8.95556
622 1 -12.7001 -6.99912 -8.95556
623 1 -12.7001 -5.33266 -6.59883
624 1 -14.1433 -7.83235 -6.59883
625 1 -14.1433 -9.4988 -4.24211
626 1 -12.7001 -6.99912 -4.24211
627 1 -12.7001 -5.33266 -1.88538
628 1 -14.1433 -7.83235 -1.88538
629 1 -14.1433 -9.4988 0.471345
630 1 -12.7001 -6.99912 0.471345
631 1 -12.7001 -5.33266 2.82807
632 1 -14.1433 -7.83235 2.82807
633 1 -14.1433 -9.4988 5.1848
634 1 -12.7001 -6.99912 5.1848
635 1 -12.7001 -5.33266 7.54152
636 1 -14.1433 -7.83235 7.54152
637 1 -14.1433 -9.4988 9.89825
638 1 -12.7001 -6.99912 9.89825
639 1 -12.7001 -5.33266 12.255
640 1 -14.1433 -7.83235 12.255
641 1 -14.1433 -9.4988 14.6117
642 1 -12.7001 -6.99912 14.6117
643 1 -12.7001 -5.33266 16.9684
644 1 -14.1433 -7.83235 16.9684
645 1 -14.1433 -9.4988 19.3252
646 1 -12.7001 -6.99912 19.3252
647 1 -14.1433 -4.49943 -18.3825
648 1 -12.7001 -1.99975 -18.3825
649 1 -12.7001 -0.333291 -16.0257
650 1 -14.1433 -2.83298 -16.0257
651 1 -14.1433 -4.49943 -13.669
652 1 -12.7001 -1.99975 -13.669
653 1 -12.7001 -0.333291 -11.3123
654 1 -14.1433 -2.83298 -11.3123
655 1 -14.1433 -4.49943 -8.95556
656 1 -12.7001 -1.99975 -8.95556
657 1 -12.7001 -0.333291 -6.59883
658 1 -14.1433 -2.83298 -6.59883
659 1 -14.1433 -4.49943 -4.24211
660 1 -12.7001 -1.99975 -4.24211
661 1 -12.7001 -0.333291 -1.88538
662 1 -14.1433 -2.83298 -1.88538
663 1 -14.1433 -4.49943 0.471345
664 1 -12.7001 -1.99975 0.471345
665 1 -12.7001 -0.333291 2.82807
666 1 -14.1433 -2.83298 2.82807
667 1 -14.1433 -4.49943 5.1848
668 1 -12.7001 -1.99975 5.1848
669 1 -12.7001 -0.333291 7.54152
670 1 -14.1433 -2.83298 7.54152
671 1 -14.1433 -4.49943 9.89825
672 1 -12.7001 -1.99975 9.89825
673 1 -12.7001 -0.333291 12.255
674 1 -14.1433 -2.83298 12.255
675 1 -14.1433 -4.49943 14.6117
676 1 -12.7001 -1.99975 14.6117
677 1 -12.7001 -0.333291 16.9684
678 1 -14.1433 -2.83298 16.9684
679 1 -14.1433 -4.49943 19.3252
680 1 -12.7001 -1.99975 19.3252
681 1 -14.1433 0.499937 -18.3825
682 1 -12.7001 2.99962 -18.3825
683 1 -12.7001 4.66608 -16.0257
684 1 -14.1433 2.16639 -16.0257
685 1 -14.1433 0.499937 -13.669
686 1 -12.7001 2.99962 -13.669
687 1 -12.7001 4.66608 -11.3123
688 1 -14.1433 2.16639 -11.3123
689 1 -14.1433 0.499937 -8.95556
690 1 -12.7001 2.99962 -8.95556
691 1 -12.7001 4.66608 -6.59883
692 1 -14.1433 2.16639 -6.59883
693 1 -14.1433 0.499937 -4.24211
694 1 -12.7001 2.99962 -4.24211
695 1 -12.7001 4.66608 -1.88538
696 1 -14.1433 2.16639 -1.88538
697 1 -14.1433 0.499937 0.471345
698 1 -12.7001 2.99962 0.471345
699 1 -12.7001 4.66608 2.82807
700 1 -14.1433 2.16639 2.82807
701 1 -14.1433 0.499937 5.1848
702 1 -12.7001 2.99962 5.1848
703 1 -12.7001 4.66608 7.54152
704 1 -14.1433 2.16639 7.54152
705 1 -14.1433 0.499937 9.89825
706 1 -12.7001 2.99962 9.89825
707 1 -12.7001 4.66608 12.255
708 1 -14.1433 2.16639 12.255
709 1 -14.1433 0.499937 14.6117
710 1 -12.7001 2.99962 14.6117
711 1 -12.7001 4.66608 16.9684
712 1 -14.1433 2.16639 16.9684
713 1 -14.1433 0.499937 19.3252
714 1 -12.7001 2.99962 19.3252
715 1 -14.1433 5.49931 -18.3825
716 1 -12.7001 7.99899 -18.3825
717 1 -12.7001 9.66545 -16.0257
718 1 -14.1433 7.16577 -16.0257
719 1 -14.1433 5.49931 -13.669
720 1 -12.7001 7.99899 -13.669
721 1 -12.7001 9.66545 -11.3123
722 1 -14.1433 7.16577 -11.3123
723 1 -14.1433 5.49931 -8.95556
724 1 -12.7001 7.99899 -8.95556
725 1 -12.7001 9.66545 -6.59883
726 1 -14.1433 7.16577 -6.59883
727 1 -14.1433 5.49931 -4.24211
728 1 -12.7001 7.99899 -4.24211
729 1 -12.7001 9.66545 -1.88538
730 1 -14.1433 7.16577 -1.88538
731 1 -14.1433 5.49931 0.471345
732 1 -12.7001 7.99899 0.471345
733 1 -12.7001 9.66545 2.82807
734 1 -14.1433 7.16577 2.82807
735 1 -14.1433 5.49931 5.1848
736 1 -12.7001 7.99899 5.1848
737 1 -12.7001 9.66545 7.54152
738 1 -14.1433 7.16577 7.54152
739 1 -14.1433 5.49931 9.89825
740 1 -12.7001 7.99899 9.89825
741 1 -12.7001 9.66545 12.255
742 1 -14.1433 7.16577 12.255
743 1 -14.1433 5.49931 14.6117
744 1 -12.7001 7.99899 14.6117
745 1 -12.7001 9.66545 16.9684
746 1 -14.1433 7.16577 16.9684
747 1 -14.1433 5.49931 19.3252
748 1 -12.7001 7.99899 19.3252
749 1 -14.1433 10.4987 -18.3825
750 1 -12.7001 12.9984 -18.3825
751 1 -12.7001 14.6648 -16.0257
752 1 -14.1433 12.1651 -16.0257
753 1 -14.1433 10.4987 -13.669
754 1 -12.7001 12.9984 -13.669
755 1 -12.7001 14.6648 -11.3123
756 1 -14.1433 12.1651 -11.3123
757 1 -14.1433 10.4987 -8.95556
758 1 -12.7001 12.9984 -8.95556
759 1 -12.7001 14.6648 -6.59883
760 1 -14.1433 12.1651 -6.59883
761 1 -14.1433 10.4987 -4.24211
762 1 -12.7001 12.9984 -4.24211
763 1 -12.7001 14.6648 -1.88538
764 1 -14.1433 12.1651 -1.88538
765 1 -14.1433 10.4987 0.471345
766 1 -12.7001 12.9984 0.471345
767 1 -12.7001 14.6648 2.82807
768 1 -14.1433 12.1651 2.82807
769 1 -14.1433 10.4987 5.1848
770 1 -12.7001 12.9984 5.1848
771 1 -12.7001 14.6648 7.54152
772 1 -14.1433 12.1651 7.54152
773 1 -14.1433 10.4987 9.89825
774 1 -12.7001 12.9984 9.89825
775 1 -12.7001 14.6648 12.255
776 1 -14.1433 12.1651 12.255
777 1 -14.1433 10.4987 14.6117
778 1 -12.7001 12.9984 14.6117
779 1 -12.7001 14.6648 16.9684
780 1 -14.1433 12.1651 16.9684
781 1 -14.1433 10.4987 19.3252
782 1 -12.7001 12.9984 19.3252
783 1 -14.1433 15.4981 -18.3825
784 1 -12.7001 17.9977 -18.3825
785 1 -12.7001 19.6642 -16.0257
786 1 -14.1433 17.1645 -16.0257
787 1 -14.1433 15.4981 -13.669
788 1 -12.7001 17.9977 -13.669
789 1 -12.7001 19.6642 -11.3123
790 1 -14.1433 17.1645 -11.3123
791 1 -14.1433 15.4981 -8.95556
792 1 -12.7001 17.9977 -8.95556
793 1 -12.7001 19.6642 -6.59883
794 1 -14.1433 17.1645 -6.59883
795 1 -14.1433 15.4981 -4.24211
796 1 -12.7001 17.9977 -4.24211
797 1 -12.7001 19.6642 -1.88538
798 1 -14.1433 17.1645 -1.88538
799 1 -14.1433 15.4981 0.471345
800 1 -12.7001 17.9977 0.471345
801 1 -12.7001 19.6642 2.82807
802 1 -14.1433 17.1645 2.82807
803 1 -14.1433 15.4981 5.1848
804 1 -12.7001 17.9977 5.1848
805 1 -12.7001 19.6642 7.54152
806 1 -14.1433 17.1645 7.54152
807 1 -14.1433 15.4981 9.89825
808 1 -12.7001 17.9977 9.89825
809 1 -12.7001 19.6642 12.255
810 1 -14.1433 17.1645 12.255
811 1 -14.1433 15.4981 14.6117
812 1 -12.7001 17.9977 14.6117
813 1 -12.7001 19.6642 16.9684
814 1 -14.1433 17.1645 16.9684
815 1 -14.1433 15.4981 19.3252
816 1 -12.7001 17.9977 19.3252
817 1 -11.2569 -19.4975 -18.3825
818 1 -9.81372 -16.9979 -18.3825
819 1 -9.81372 -15.3314 -16.0257
820 1 -11.2569 -17.8311 -16.0257
821 1 -11.2569 -19.4975 -13.669
822 1 -9.81372 -16.9979 -13.669
823 1 -9.81372 -15.3314 -11.3123
824 1 -11.2569 -17.8311 -11.3123
825 1 -11.2569 -19.4975 -8.95556
826 1 -9.81372 -16.9979 -8.95556
827 1 -9.81372 -15.3314 -6.59883
828 1 -11.2569 -17.8311 -6.59883
829 1 -11.2569 -19.4975 -4.24211
830 1 -9.81372 -16.9979 -4.24211
831 1 -9.81372 -15.3314 -1.88538
832 1 -11.2569 -17.8311 -1.88538
833 1 -11.2569 -19.4975 0.471345
834 1 -9.81372 -16.9979 0.471345
835 1 -9.81372 -15.3314 2.82807
836 1 -11.2569 -17.8311 2.82807
837 1 -11.2569 -19.4975 5.1848
838 1 -9.81372 -16.9979 5.1848
839 1 -9.81372 -15.3314 7.54152
840 1 -11.2569 -17.8311 7.54152
841 1 -11.2569 -19.4975 9.89825
842 1 -9.81372 -16.9979 9.89825
843 1 -9.81372 -15.3314 12.255
844 1 -11.2569 -17.8311 12.255
845 1 -11.2569 -19.4975 14.6117
846 1 -9.81372 -16.9979 14.6117
847 1 -9.81372 -15.3314 16.9684
848 1 -11.2569 -17.8311 16.9684
849 1 -11.2569 -19.4975 19.3252
850 1 -9.81372 -16.9979 19.3252
851 1 -11.2569 -14.4982 -18.3825
852 1 -9.81372 -11.9985 -18.3825
853 1 -9.81372 -10.332 -16.0257
854 1 -11.2569 -12.8317 -16.0257
855 1 -11.2569 -14.4982 -13.669
856 1 -9.81372 -11.9985 -13.669
857 1 -9.81372 -10.332 -11.3123
858 1 -11.2569 -12.8317 -11.3123
859 1 -11.2569 -14.4982 -8.95556
860 1 -9.81372 -11.9985 -8.95556
861 1 -9.81372 -10.332 -6.59883
862 1 -11.2569 -12.8317 -6.59883
863 1 -11.2569 -14.4982 -4.24211
864 1 -9.81372 -11.9985 -4.24211
865 1 -9.81372 -10.332 -1.88538
866 1 -11.2569 -12.8317 -1.88538
867 1 -11.2569 -14.4982 0.471345
868 1 -9.81372 -11.9985 0.471345
869 1 -9.81372 -10.332 2.82807
870 1 -11.2569 -12.8317 2.82807
871 1 -11.2569 -14.4982 5.1848
872 1 -9.81372 -11.9985 5.1848
873 1 -9.81372 -10.332 7.54152
874 1 -11.2569 -12.8317 7.54152
875 1 -11.2569 -14.4982 9.89825
876 1 -9.81372 -11.9985 9.89825
877 1 -9.81372 -10.332 12.255
878 1 -11.2569 -12.8317 12.255
879 1 -11.2569 -14.4982 14.6117
880 1 -9.81372 -11.9985 14.6117
881 1 -9.81372 -10.332 16.9684
882 1 -11.2569 -12.8317 16.9684
883 1 -11.2569 -14.4982 19.3252
884 1 -9.81372 -11.9985 19.3252
885 1 -11.2569 -9.4988 -18.3825
886 1 -9.81372 -6.99912 -18.3825
887 1 -9.81372 -5.33266 -16.0257
888 1 -11.2569 -7.83235 -16.0257
889 1 -11.2569 -9.4988 -13.669
890 1 -9.81372 -6.99912 -13.669
891 1 -9.81372 -5.33266 -11.3123
892 1 -11.2569 -7.83235 -11.3123
893 1 -11.2569 -9.4988 -8.95556
894 1 -9.81372 -6.99912 -8.95556
895 1 -9.81372 -5.33266 -6.59883
896 1 -11.2569 -7.83235 -6.59883
897 1 -11.2569 -9.4988 -4.24211
898 1 -9.81372 -6.99912 -4.24211
899 1 -9.81372 -5.33266 -1.88538
900 1 -11.2569 -7.83235 -1.88538
901 1 -11.2569 -9.4988 0.471345
902 1 -9.81372 -6.99912 0.471345
903 1 -9.81372 -5.33266 2.82807
904 1 -11.2569 -7.83235 2.82807
905 1 -11.2569 -9.4988 5.1848
906 1 -9.81372 -6.99912 5.1848
907 1 -9.81372 -5.33266 7.54152
908 1 -11.2569 -7.83235 7.54152
909 1 -11.2569 -9.4988 9.89825
910 1 -9.81372 -6.99912 9.89825
911 1 -9.81372 -5.33266 12.255
912 1 -11.2569 -7.83235 12.255
913 1 -11.2569 -9.4988 14.6117
914 1 -9.81372 -6.99912 14.6117
915 1 -9.81372 -5.33266 16.9684
916 1 -11.2569 -7.83235 16.9684
917 1 -11.2569 -9.4988 19.3252
918 1 -9.81372 -6.99912 19.3252
919 1 -11.2569 -4.49943 -18.3825
920 1 -9.81372 -1.99975 -18.3825
921 1 -9.81372 -0.333291 -16.0257
922 1 -11.2569 -2.83298 -16.0257
923 1 -11.2569 -4.49943 -13.669
924 1 -9.81372 -1.99975 -13.669
925 1 -9.81372 -0.333291 -11.3123
926 1 -11.2569 -2.83298 -11.3123
927 1 -11.2569 -4.49943 -8.95556
928 1 -9.81372 -1.99975 -8.95556
929 1 -9.81372 -0.333291 -6.59883
930 1 -11.2569 -2.83298 -6.59883
931 1 -11.2569 -4.49943 -4.24211
932 1 -9.81372 -1.99975 -4.24211
933 1 -9.81372 -0.333291 -1.88538
934 1 -11.2569 -2.83298 -1.88538
935 1 -11.2569 -4.49943 0.471345
936 1 -9.81372 -1.99975 0.471345
937 1 -9.81372 -0.333291 2.82807
938 1 -11.2569 -2.83298 2.82807
939 1 -11.2569 -4.49943 5.1848