system_name                             
           1
     2.886148    0.000000    0.000000
    -1.443074    2.499478    0.000000
     0.000000    0.000000   45.921833
   Au
  12
Direct configuration=     1
   0.10000000  0.10000000  0.21776134
   0.76666667  0.43333333  0.26907746
   0.43333333  0.76666667  0.32039358
   0.10000000  0.10000000  0.37170970
   0.76666667  0.43333333  0.42302582
   0.43333333  0.76666667  0.47434194
   0.10000000  0.10000000  0.52565806
   0.76666667  0.43333333  0.57697418
   0.43333333  0.76666667  0.62829030
   0.10000000  0.10000000  0.67960642
   0.76666667  0.43333333  0.73092254
   0.43333333  0.76666667  0.78223866
Direct configuration=     2
   0.10000000  0.10000000  0.21776134
   0.76666667  0.43333333  0.26907746
   0.43333333  0.76666667  0.32038595
   0.10000000  0.10000000  0.37170744
   0.76666667  0.43333333  0.42302472
   0.43333333  0.76666667  0.47434276
   0.10000000  0.10000000  0.52565724
   0.76666667  0.43333333  0.57697528
   0.43333333  0.76666667  0.62829256
   0.10000000  0.10000000  0.67961405
   0.76666667  0.43333333  0.73089883
   0.43333333  0.76666667  0.78225202
Direct configuration=     3
   0.10000000  0.10000000  0.21776134
   0.76666667  0.43333333  0.26907746
   0.43333333  0.76666667  0.32036308
   0.10000000  0.10000000  0.37170065
   0.76666667  0.43333333  0.42302141
   0.43333333  0.76666667  0.47434522
   0.10000000  0.10000000  0.52565478
   0.76666667  0.43333333  0.57697859
   0.43333333  0.76666667  0.62829935
   0.10000000  0.10000000  0.67963692
   0.76666667  0.43333333  0.73082772
   0.43333333  0.76666667  0.78229209
Direct configuration=     4
   0.10000000  0.10000000  0.21776134
   0.76666667  0.43333333  0.26907746
   0.43333333  0.76666667  0.32031732
   0.10000000  0.10000000  0.37168708
   0.76666667  0.43333333  0.42301480
   0.43333333  0.76666667  0.47435013
   0.10000000  0.10000000  0.52564987
   0.76666667  0.43333333  0.57698520
   0.43333333  0.76666667  0.62831292
   0.10000000  0.10000000  0.67968268
   0.76666667  0.43333333  0.73068549
   0.43333333  0.76666667  0.78237224
Direct configuration=     5
   0.10000000  0.10000000  0.21776134
   0.76666667  0.43333333  0.26907746
   0.43333333  0.76666667  0.32032531
   0.10000000  0.10000000  0.37168945
   0.76666667  0.43333333  0.42301595
   0.43333333  0.76666667  0.47434928
   0.10000000  0.10000000  0.52565072
   0.76666667  0.43333333  0.57698405
   0.43333333  0.76666667  0.62831055
   0.10000000  0.10000000  0.67967469
   0.76666667  0.43333333  0.73071033
   0.43333333  0.76666667  0.78235824
Direct configuration=     6
   0.10000000  0.10000000  0.21776134
   0.76666667  0.43333333  0.26907746
   0.43333333  0.76666667  0.32031594
   0.10000000  0.10000000  0.37167908
   0.76666667  0.43333333  0.42301361
   0.43333333  0.76666667  0.47434840
   0.10000000  0.10000000  0.52565154
   0.76666667  0.43333333  0.57698629
   0.43333333  0.76666667  0.62832138
   0.10000000  0.10000000  0.67966029
   0.76666667  0.43333333  0.73070554
   0.43333333  0.76666667  0.78236442
Direct configuration=     7
   0.10000000  0.10000000  0.21776134
   0.76666667  0.43333333  0.26907746
   0.43333333  0.76666667  0.32028782
   0.10000000  0.10000000  0.37164797
   0.76666667  0.43333333  0.42300659
   0.43333333  0.76666667  0.47434575
   0.10000000  0.10000000  0.52565399
   0.76666667  0.43333333  0.57699302
   0.43333333  0.76666667  0.62835388
   0.10000000  0.10000000  0.67961711
   0.76666667  0.43333333  0.73069115
   0.43333333  0.76666667  0.78238295
Direct configuration=     8
   0.10000000  0.10000000  0.21776134
   0.76666667  0.43333333  0.26907746
   0.43333333  0.76666667  0.32027956
   0.10000000  0.10000000  0.37163883
   0.76666667  0.43333333  0.42300453
   0.43333333  0.76666667  0.47434498
   0.10000000  0.10000000  0.52565471
   0.76666667  0.43333333  0.57699500
   0.43333333  0.76666667  0.62836342
   0.10000000  0.10000000  0.67960442
   0.76666667  0.43333333  0.73068693
   0.43333333  0.76666667  0.78238839
Direct configuration=     9
   0.10000000  0.10000000  0.21776134
   0.76666667  0.43333333  0.26907746
   0.43333333  0.76666667  0.32026912
   0.10000000  0.10000000  0.37162404
   0.76666667  0.43333333  0.42299392
   0.43333333  0.76666667  0.47434291
   0.10000000  0.10000000  0.52565626
   0.76666667  0.43333333  0.57700631
   0.43333333  0.76666667  0.62835674
   0.10000000  0.10000000  0.67960005
   0.76666667  0.43333333  0.73068525
   0.43333333  0.76666667  0.78238856
Direct configuration=    10
   0.10000000  0.10000000  0.21776134
   0.76666667  0.43333333  0.26907746
   0.43333333  0.76666667  0.32023890
   0.10000000  0.10000000  0.37158123
   0.76666667  0.43333333  0.42296323
   0.43333333  0.76666667  0.47433693
   0.10000000  0.10000000  0.52566076
   0.76666667  0.43333333  0.57703905
   0.43333333  0.76666667  0.62833739
   0.10000000  0.10000000  0.67958741
   0.76666667  0.43333333  0.73068039
   0.43333333  0.76666667  0.78238905
Direct configuration=    11
   0.10000000  0.10000000  0.21776134
   0.76666667  0.43333333  0.26907746
   0.43333333  0.76666667  0.32022955
   0.10000000  0.10000000  0.37156474
   0.76666667  0.43333333  0.42294551
   0.43333333  0.76666667  0.47432719
   0.10000000  0.10000000  0.52567074
   0.76666667  0.43333333  0.57703215
   0.43333333  0.76666667  0.62833604
   0.10000000  0.10000000  0.67958913
   0.76666667  0.43333333  0.73067911
   0.43333333  0.76666667  0.78238279
Direct configuration=    12
   0.10000000  0.10000000  0.21776134
   0.76666667  0.43333333  0.26907746
   0.43333333  0.76666667  0.32021902
   0.10000000  0.10000000  0.37154619
   0.76666667  0.43333333  0.42292557
   0.43333333  0.76666667  0.47431623
   0.10000000  0.10000000  0.52568196
   0.76666667  0.43333333  0.57702438
   0.43333333  0.76666667  0.62833451
   0.10000000  0.10000000  0.67959105
   0.76666667  0.43333333  0.73067766
   0.43333333  0.76666667  0.78237573
Direct configuration=    13
   0.10000000  0.10000000  0.21776134
   0.76666667  0.43333333  0.26907746
   0.43333333  0.76666667  0.32021473
   0.10000000  0.10000000  0.37153610
   0.76666667  0.43333333  0.42291179
   0.43333333  0.76666667  0.47431061
   0.10000000  0.10000000  0.52567007
   0.76666667  0.43333333  0.57701905
   0.43333333  0.76666667  0.62833618
   0.10000000  0.10000000  0.67959339
   0.76666667  0.43333333  0.73067611
   0.43333333  0.76666667  0.78236801
Direct configuration=    14
   0.10000000  0.10000000  0.21776134
   0.76666667  0.43333333  0.26907746
   0.43333333  0.76666667  0.32020947
   0.10000000  0.10000000  0.37152373
   0.76666667  0.43333333  0.42289489
   0.43333333  0.76666667  0.47430372
   0.10000000  0.10000000  0.52565549
   0.76666667  0.43333333  0.57701252
   0.43333333  0.76666667  0.62833822
   0.10000000  0.10000000  0.67959625
   0.76666667  0.43333333  0.73067421
   0.43333333  0.76666667  0.78235854
Direct configuration=    15
   0.10000000  0.10000000  0.21776134
   0.76666667  0.43333333  0.26907746
   0.43333333  0.76666667  0.32019894
   0.10000000  0.10000000  0.37149899
   0.76666667  0.43333333  0.42286111
   0.43333333  0.76666667  0.47428994
   0.10000000  0.10000000  0.52562633
   0.76666667  0.43333333  0.57699946
   0.43333333  0.76666667  0.62834230
   0.10000000  0.10000000  0.67960198
   0.76666667  0.43333333  0.73067040
   0.43333333  0.76666667  0.78233961
Direct configuration=    16
   0.10000000  0.10000000  0.21776134
   0.76666667  0.43333333  0.26907746
   0.43333333  0.76666667  0.32020567
   0.10000000  0.10000000  0.37151480
   0.76666667  0.43333333  0.42288270
   0.43333333  0.76666667  0.47429875
   0.10000000  0.10000000  0.52564497
   0.76666667  0.43333333  0.57700781
   0.43333333  0.76666667  0.62833969
   0.10000000  0.10000000  0.67959832
   0.76666667  0.43333333  0.73067283
   0.43333333  0.76666667  0.78235171
Direct configuration=    17
   0.10000000  0.10000000  0.21776134
   0.76666667  0.43333333  0.26907746
   0.43333333  0.76666667  0.32020130
   0.10000000  0.10000000  0.37150658
   0.76666667  0.43333333  0.42287715
   0.43333333  0.76666667  0.47428200
   0.10000000  0.10000000  0.52563341
   0.76666667  0.43333333  0.57700225
   0.43333333  0.76666667  0.62833780
   0.10000000  0.10000000  0.67959771
   0.76666667  0.43333333  0.73066988
   0.43333333  0.76666667  0.78234631
Direct configuration=    18
   0.10000000  0.10000000  0.21776134
   0.76666667  0.43333333  0.26907746
   0.43333333  0.76666667  0.32019563
   0.10000000  0.10000000  0.37149590
   0.76666667  0.43333333  0.42286995
   0.43333333  0.76666667  0.47426024
   0.10000000  0.10000000  0.52561841
   0.76666667  0.43333333  0.57699502
   0.43333333  0.76666667  0.62833535
   0.10000000  0.10000000  0.67959693
   0.76666667  0.43333333  0.73066605
   0.43333333  0.76666667  0.78233929
Direct configuration=    19
   0.10000000  0.10000000  0.21776134
   0.76666667  0.43333333  0.26907746
   0.43333333  0.76666667  0.32018429
   0.10000000  0.10000000  0.37147455
   0.76666667  0.43333333  0.42285554
   0.43333333  0.76666667  0.47421673
   0.10000000  0.10000000  0.52558840
   0.76666667  0.43333333  0.57698058
   0.43333333  0.76666667  0.62833045
   0.10000000  0.10000000  0.67959535
   0.76666667  0.43333333  0.73065838
   0.43333333  0.76666667  0.78232525
Direct configuration=    20
   0.10000000  0.10000000  0.21776134
   0.76666667  0.43333333  0.26907746
   0.43333333  0.76666667  0.32019203
   0.10000000  0.10000000  0.37148912
   0.76666667  0.43333333  0.42286537
   0.43333333  0.76666667  0.47424642
   0.10000000  0.10000000  0.52560888
   0.76666667  0.43333333  0.57699044
   0.43333333  0.76666667  0.62833380
   0.10000000  0.10000000  0.67959643
   0.76666667  0.43333333  0.73066361
   0.43333333  0.76666667  0.78233483
Direct configuration=    21
   0.10000000  0.10000000  0.21776134
   0.76666667  0.43333333  0.26907746
   0.43333333  0.76666667  0.32018732
   0.10000000  0.10000000  0.37148912
   0.76666667  0.43333333  0.42285267
   0.43333333  0.76666667  0.47423205
   0.10000000  0.10000000  0.52559612
   0.76666667  0.43333333  0.57698093
   0.43333333  0.76666667  0.62832460
   0.10000000  0.10000000  0.67958779
   0.76666667  0.43333333  0.73065876
   0.43333333  0.76666667  0.78233345
Direct configuration=    22
   0.10000000  0.10000000  0.21776134
   0.76666667  0.43333333  0.26907746
   0.43333333  0.76666667  0.32018251
   0.10000000  0.10000000  0.37148912
   0.76666667  0.43333333  0.42283966
   0.43333333  0.76666667  0.47421733
   0.10000000  0.10000000  0.52558307
   0.76666667  0.43333333  0.57697120
   0.43333333  0.76666667  0.62831517
   0.10000000  0.10000000  0.67957894
   0.76666667  0.43333333  0.73065380
   0.43333333  0.76666667  0.78233204
Direct configuration=    23
   0.10000000  0.10000000  0.21776134
   0.76666667  0.43333333  0.26907746
   0.43333333  0.76666667  0.32017288
   0.10000000  0.10000000  0.37148913
   0.76666667  0.43333333  0.42281364
   0.43333333  0.76666667  0.47418790
   0.10000000  0.10000000  0.52555695
   0.76666667  0.43333333  0.57695174
   0.43333333  0.76666667  0.62829633
   0.10000000  0.10000000  0.67956124
   0.76666667  0.43333333  0.73064386
   0.43333333  0.76666667  0.78232921
Direct configuration=    24
   0.10000000  0.10000000  0.21776134
   0.76666667  0.43333333  0.26907746
   0.43333333  0.76666667  0.32017793
   0.10000000  0.10000000  0.37148912
   0.76666667  0.43333333  0.42282729
   0.43333333  0.76666667  0.47420333
   0.10000000  0.10000000  0.52557065
   0.76666667  0.43333333  0.57696195
   0.43333333  0.76666667  0.62830621
   0.10000000  0.10000000  0.67957052
   0.76666667  0.43333333  0.73064907
   0.43333333  0.76666667  0.78233070
Direct configuration=    25
   0.10000000  0.10000000  0.21776134
   0.76666667  0.43333333  0.26907746
   0.43333333  0.76666667  0.32017959
   0.10000000  0.10000000  0.37148331
   0.76666667  0.43333333  0.42282013
   0.43333333  0.76666667  0.47419495
   0.10000000  0.10000000  0.52556100
   0.76666667  0.43333333  0.57695101
   0.43333333  0.76666667  0.62829557
   0.10000000  0.10000000  0.67956171
   0.76666667  0.43333333  0.73064377
   0.43333333  0.76666667  0.78232988
Direct configuration=    26
   0.10000000  0.10000000  0.21776134
   0.76666667  0.43333333  0.26907746
   0.43333333  0.76666667  0.32018458
   0.10000000  0.10000000  0.37146587
   0.76666667  0.43333333  0.42279864
   0.43333333  0.76666667  0.47416979
   0.10000000  0.10000000  0.52553208
   0.76666667  0.43333333  0.57691821
   0.43333333  0.76666667  0.62826363
   0.10000000  0.10000000  0.67953528
   0.76666667  0.43333333  0.73062785
   0.43333333  0.76666667  0.78232742
Direct configuration=    27
   0.10000000  0.10000000  0.21776134
   0.76666667  0.43333333  0.26907746
   0.43333333  0.76666667  0.32019455
   0.10000000  0.10000000  0.37143098
   0.76666667  0.43333333  0.42275567
   0.43333333  0.76666667  0.47411948
   0.10000000  0.10000000  0.52547423
   0.76666667  0.43333333  0.57685261
   0.43333333  0.76666667  0.62819975
   0.10000000  0.10000000  0.67948243
   0.76666667  0.43333333  0.73059601
   0.43333333  0.76666667  0.78232250
Direct configuration=    28
   0.10000000  0.10000000  0.21776134
   0.76666667  0.43333333  0.26907746
   0.43333333  0.76666667  0.32018762
   0.10000000  0.10000000  0.37145524
   0.76666667  0.43333333  0.42278555
   0.43333333  0.76666667  0.47415446
   0.10000000  0.10000000  0.52551446
   0.76666667  0.43333333  0.57689823
   0.43333333  0.76666667  0.62824417
   0.10000000  0.10000000  0.67951918
   0.76666667  0.43333333  0.73061815
   0.43333333  0.76666667  0.78232592
Direct configuration=    29
   0.10000000  0.10000000  0.21776134
   0.76666667  0.43333333  0.26907746
   0.43333333  0.76666667  0.32017975
   0.10000000  0.10000000  0.37144987
   0.76666667  0.43333333  0.42278170
   0.43333333  0.76666667  0.47414908
   0.10000000  0.10000000  0.52550258
   0.76666667  0.43333333  0.57688081
   0.43333333  0.76666667  0.62822712
   0.10000000  0.10000000  0.67950750
   0.76666667  0.43333333  0.73060869
   0.43333333  0.76666667  0.78231683
Direct configuration=    30
   0.10000000  0.10000000  0.21776134
   0.76666667  0.43333333  0.26907746
   0.43333333  0.76666667  0.32015886
   0.10000000  0.10000000  0.37143560
   0.76666667  0.43333333  0.42277147
   0.43333333  0.76666667  0.47413477
   0.10000000  0.10000000  0.52547105
   0.76666667  0.43333333  0.57683455
   0.43333333  0.76666667  0.62818184
   0.10000000  0.10000000  0.67947648
   0.76666667  0.43333333  0.73058357
   0.43333333  0.76666667  0.78229268
Direct configuration=    31
   0.10000000  0.10000000  0.21776134
   0.76666667  0.43333333  0.26907746
   0.43333333  0.76666667  0.32015799
   0.10000000  0.10000000  0.37143053
   0.76666667  0.43333333  0.42276913
   0.43333333  0.76666667  0.47412683
   0.10000000  0.10000000  0.52546121
   0.76666667  0.43333333  0.57682314
   0.43333333  0.76666667  0.62816919
   0.10000000  0.10000000  0.67945718
   0.76666667  0.43333333  0.73056534
   0.43333333  0.76666667  0.78227019
Direct configuration=    32
   0.10000000  0.10000000  0.21776134
   0.76666667  0.43333333  0.26907746
   0.43333333  0.76666667  0.32015538
   0.10000000  0.10000000  0.37141532
   0.76666667  0.43333333  0.42276210
   0.43333333  0.76666667  0.47410301
   0.10000000  0.10000000  0.52543170
   0.76666667  0.43333333  0.57678891
   0.43333333  0.76666667  0.62813122
   0.10000000  0.10000000  0.67939928
   0.76666667  0.43333333  0.73051062
   0.43333333  0.76666667  0.78220271
Direct configuration=    33
   0.10000000  0.10000000  0.21776134
   0.76666667  0.43333333  0.26907746
   0.43333333  0.76666667  0.32015017
   0.10000000  0.10000000  0.37138491
   0.76666667  0.43333333  0.42274804
   0.43333333  0.76666667  0.47405537
   0.10000000  0.10000000  0.52537268
   0.76666667  0.43333333  0.57672045
   0.43333333  0.76666667  0.62805528
   0.10000000  0.10000000  0.67928348
   0.76666667  0.43333333  0.73040120
   0.43333333  0.76666667  0.78206774
Direct configuration=    34
   0.10000000  0.10000000  0.21776134
   0.76666667  0.43333333  0.26907746
   0.43333333  0.76666667  0.32015361
   0.10000000  0.10000000  0.37140497
   0.76666667  0.43333333  0.42275732
   0.43333333  0.76666667  0.47408679
   0.10000000  0.10000000  0.52541161
   0.76666667  0.43333333  0.57676560
   0.43333333  0.76666667  0.62810537
   0.10000000  0.10000000  0.67935985
   0.76666667  0.43333333  0.73047337
   0.43333333  0.76666667  0.78215676
Direct configuration=    35
   0.10000000  0.10000000  0.21776134
   0.76666667  0.43333333  0.26907746
   0.43333333  0.76666667  0.32015313
   0.10000000  0.10000000  0.37140458
   0.76666667  0.43333333  0.42275538
   0.43333333  0.76666667  0.47408489
   0.10000000  0.10000000  0.52540881
   0.76666667  0.43333333  0.57676253
   0.43333333  0.76666667  0.62810093
   0.10000000  0.10000000  0.67935501
   0.76666667  0.43333333  0.73046674
   0.43333333  0.76666667  0.78215003
Direct configuration=    36
   0.10000000  0.10000000  0.21776134
   0.76666667  0.43333333  0.26907746
   0.43333333  0.76666667  0.32015172
   0.10000000  0.10000000  0.37140343
   0.76666667  0.43333333  0.42274957
   0.43333333  0.76666667  0.47407919
   0.10000000  0.10000000  0.52540042
   0.76666667  0.43333333  0.57675333
   0.43333333  0.76666667  0.62808761
   0.10000000  0.10000000  0.67934047
   0.76666667  0.43333333  0.73044685
   0.43333333  0.76666667  0.78212987
Direct configuration=    37
   0.10000000  0.10000000  0.21776134
   0.76666667  0.43333333  0.26907746
   0.43333333  0.76666667  0.32014888
   0.10000000  0.10000000  0.37140112
   0.76666667  0.43333333  0.42273795
   0.43333333  0.76666667  0.47406779
   0.10000000  0.10000000  0.52538365
   0.76666667  0.43333333  0.57673493
   0.43333333  0.76666667  0.62806099
   0.10000000  0.10000000  0.67931139
   0.76666667  0.43333333  0.73040707
   0.43333333  0.76666667  0.78208953
Direct configuration=    38
   0.10000000  0.10000000  0.21776134
   0.76666667  0.43333333  0.26907746
   0.43333333  0.76666667  0.32014320
   0.10000000  0.10000000  0.37139650
   0.76666667  0.43333333  0.42271470
   0.43333333  0.76666667  0.47404500
   0.10000000  0.10000000  0.52535011
   0.76666667  0.43333333  0.57669813
   0.43333333  0.76666667  0.62800773
   0.10000000  0.10000000  0.67925324
   0.76666667  0.43333333  0.73032751
   0.43333333  0.76666667  0.78200885
Direct configuration=    39
   0.10000000  0.10000000  0.21776134
   0.76666667  0.43333333  0.26907746
   0.43333333  0.76666667  0.32014198
   0.10000000  0.10000000  0.37139551
   0.76666667  0.43333333  0.42270969
   0.43333333  0.76666667  0.47404008
   0.10000000  0.10000000  0.52534288
   0.76666667  0.43333333  0.57669020
   0.43333333  0.76666667  0.62799626
   0.10000000  0.10000000  0.67924071
   0.76666667  0.43333333  0.73031037
   0.43333333  0.76666667  0.78199147
Direct configuration=    40
   0.10000000  0.10000000  0.21776134
   0.76666667  0.43333333  0.26907746
   0.43333333  0.76666667  0.32014234
   0.10000000  0.10000000  0.37139580
   0.76666667  0.43333333  0.42271115
   0.43333333  0.76666667  0.47404151
   0.10000000  0.10000000  0.52534498
   0.76666667  0.43333333  0.57669251
   0.43333333  0.76666667  0.62799960
   0.10000000  0.10000000  0.67924435
   0.76666667  0.43333333  0.73031535
   0.43333333  0.76666667  0.78199652
Direct configuration=    41
   0.10000000  0.10000000  0.21776134
   0.76666667  0.43333333  0.26907746
   0.43333333  0.76666667  0.32014315
   0.10000000  0.10000000  0.37139628
   0.76666667  0.43333333  0.42270946
   0.43333333  0.76666667  0.47404039
   0.10000000  0.10000000  0.52534746
   0.76666667  0.43333333  0.57668980
   0.43333333  0.76666667  0.62799841
   0.10000000  0.10000000  0.67924338
   0.76666667  0.43333333  0.73031378
   0.43333333  0.76666667  0.78199536
Direct configuration=    42
   0.10000000  0.10000000  0.21776134
   0.76666667  0.43333333  0.26907746
   0.43333333  0.76666667  0.32014368
   0.10000000  0.10000000  0.37139659
   0.76666667  0.43333333  0.42270835
   0.43333333  0.76666667  0.47403965
   0.10000000  0.10000000  0.52534909
   0.76666667  0.43333333  0.57668802
   0.43333333  0.76666667  0.62799764
   0.10000000  0.10000000  0.67924274
   0.76666667  0.43333333  0.73031275
   0.43333333  0.76666667  0.78199460
Direct configuration=    43
   0.10000000  0.10000000  0.21776134
   0.76666667  0.43333333  0.26907746
   0.43333333  0.76666667  0.32014474
   0.10000000  0.10000000  0.37139722
   0.76666667  0.43333333  0.42270613
   0.43333333  0.76666667  0.47403818
   0.10000000  0.10000000  0.52535234
   0.76666667  0.43333333  0.57668447
   0.43333333  0.76666667  0.62799608
   0.10000000  0.10000000  0.67924146
   0.76666667  0.43333333  0.73031069
   0.43333333  0.76666667  0.78199308
Direct configuration=    44
   0.10000000  0.10000000  0.21776134
   0.76666667  0.43333333  0.26907746
   0.43333333  0.76666667  0.32014430
   0.10000000  0.10000000  0.37139696
   0.76666667  0.43333333  0.42270705
   0.43333333  0.76666667  0.47403879
   0.10000000  0.10000000  0.52535099
   0.76666667  0.43333333  0.57668594
   0.43333333  0.76666667  0.62799673
   0.10000000  0.10000000  0.67924199
   0.76666667  0.43333333  0.73031154
   0.43333333  0.76666667  0.78199371
Direct configuration=    45
   0.10000000  0.10000000  0.21776134
   0.76666667  0.43333333  0.26907746
   0.43333333  0.76666667  0.32014502
   0.10000000  0.10000000  0.37139690
   0.76666667  0.43333333  0.42270646
   0.43333333  0.76666667  0.47403917
   0.10000000  0.10000000  0.52535120
   0.76666667  0.43333333  0.57668611
   0.43333333  0.76666667  0.62799570
   0.10000000  0.10000000  0.67924164
   0.76666667  0.43333333  0.73031169
   0.43333333  0.76666667  0.78199380
Direct configuration=    46
   0.10000000  0.10000000  0.21776134
   0.76666667  0.43333333  0.26907746
   0.43333333  0.76666667  0.32014611
   0.10000000  0.10000000  0.37139681
   0.76666667  0.43333333  0.42270557
   0.43333333  0.76666667  0.47403975
   0.10000000  0.10000000  0.52535152
   0.76666667  0.43333333  0.57668637
   0.43333333  0.76666667  0.62799415
   0.10000000  0.10000000  0.67924111
   0.76666667  0.43333333  0.73031191
   0.43333333  0.76666667  0.78199393
